 Gaussian 16, Revision A.03,
 Gaussian 16:  EM64M-G16RevA.03 25-Dec-2016

 -----------------------------------------------------
 #p rhf/gen nosymm int=noraff output=matrix scf=conven
 -----------------------------------------------------

 ----------------------------------------------
 h3+ sto-3g for h1&h2; h3 no basis sets applied
 ----------------------------------------------
 Symbolic Z-matrix:
 Charge =  1 Multiplicity = 1

                          Input orientation:
 ---------------------------------------------------------------------
 Center     Atomic      Atomic             Coordinates (Angstroms)
 Number     Number       Type             X           Y           Z
 ---------------------------------------------------------------------
      1          1           0        0.000000    0.000000    0.000000
      2          1           0        0.000000    0.000000    0.740000
      3          1           0        0.000000    0.000000    1.480000
 ---------------------------------------------------------------------

 SCF Done:  E(RHF) =  -1.26872068110     A.U. after    5 cycles

 Alpha  occ. eigenvalues --   -0.10935
 Alpha virt. eigenvalues --    1.26222

 Mulliken charges:
               1
     1  H   -0.422338
     2  H    0.422338
     3  H   -1.000000
 Sum of Mulliken charges =  -1.00000

 Dipole moment (field-independent basis, Debye):
    X=              0.0000    Y=              0.0000    Z=             -5.6076  Tot=              5.6076
 Quadrupole moment (field-independent basis, Debye-Ang):
   XX=             -1.8323   YY=             -1.8323   ZZ=            -10.8861
   XY=              0.0000   XZ=              0.0000   YZ=              0.0000

 Normal termination of Gaussian 16 at Thu Jul 28 12:31:16 2022.
